<VTKFile type="UnstructuredGrid" version="2.2">
  <UnstructuredGrid>
    <Piece NumberOfPoints="1260" NumberOfCells="2406">
      <PointData>
        <DataArray Name="vector_potential" type="Float64" format="ascii" NumberOfComponents="1">8.938779922501234e-06 0.0 8.939420612869346e-06 8.939276764021034e-06 8.939491374684277e-06 8.939839610404138e-06 8.939973285492469e-06 8.939221276835099e-06 8.938916536792315e-06 8.939422409200422e-06 8.939928381319195e-06 8.939479734091435e-06 8.93981646511249e-06 8.939476270107684e-06 8.938813965680683e-06 8.938773356479877e-06 8.939163965964607e-06 8.939604193251921e-06 8.939915533079306e-06 8.939722807986585e-06 8.939798445834569e-06 8.93975745926028e-06 8.939109477295726e-06 8.939145711519468e-06 8.93937305854865e-06 8.939410690220828e-06 8.93916405135775e-06 8.938650860976303e-06 8.939120809077283e-06 8.93994976405915e-06 8.939413491426166e-06 8.939351945554131e-06 8.93918120101969e-06 8.939293901228528e-06 8.939259440526747e-06 8.93927688251617e-06 8.939369902086822e-06 8.939324957379605e-06 8.939605262862127e-06 8.939325565532182e-06 8.939295724094088e-06 8.939505442638742e-06 8.93959317637582e-06 8.939522308031522e-06 8.939495347675474e-06 8.939774379657151e-06 8.939650146978719e-06 8.939380375055084e-06 8.939426243096552e-06 8.938786295328904e-06 8.938519949914151e-06 8.93906260528708e-06 8.939615338957552e-06 8.939013868340296e-06 8.939583019051015e-06 8.939887167179284e-06 8.939429105687459e-06 8.9389624741722e-06 8.939455225363014e-06 8.939630489588752e-06 8.939533335369716e-06 8.939347142457296e-06 8.939143503945094e-06 8.939212097235429e-06 8.939239358119009e-06 0.0 0.0 0.0 0.0 0.0 0.0 0.0 0.0 0.0 0.0 0.0 0.0 0.0 0.0 0.0 0.0 0.0 0.0 0.0 0.0 0.0 0.0 0.0 0.0 0.0 0.0 0.0 0.0 0.0 0.0 0.0 0.0 0.0 0.0 0.0 0.0 0.0 0.0 0.0 0.0 0.0 0.0 0.0 0.0 0.0 0.0 0.0 0.0 0.0 0.0 0.0 0.0 0.0 0.0 0.0 0.0 0.0 0.0 0.0 0.0 0.0 0.0 0.0 0.0 0.0 0.0 0.0 0.0 0.0 0.0 0.0 0.0 0.0 0.0 0.0 0.0 0.0 0.0 0.0 0.0 0.0 0.0 0.0 0.0 0.0 0.0 0.0 0.0 0.0 0.0 0.0 0.0 0.0 0.0 0.0 0.0 0.0 0.0 0.0 0.0 0.0 0.0 0.0 0.0 0.0 0.0 0.0 0.0 0.0 0.0 -0.0 9.199448616097276e-06 9.205824367661178e-06 9.20381026115907e-06 9.17828556209818e-06 9.163205057397432e-06 9.203319258429653e-06 9.14321646905528e-06 9.203003632270239e-06 9.204425027367754e-06 9.199625972795496e-06 9.189847880245297e-06 9.205154763610358e-06 9.213786532021069e-06 9.204721033068918e-06 9.186351858751797e-06 9.191298532638423e-06 9.194576309482406e-06 9.17211870185612e-06 9.194042738130103e-06 9.212503813903215e-06 9.238131768768572e-06 9.222964043596236e-06 9.194052589022884e-06 9.165208635760364e-06 9.19323484107761e-06 9.212126677129916e-06 9.208216362532244e-06 9.227045545577963e-06 9.179474903404487e-06 9.222934454988307e-06 9.159827881262527e-06 9.186077730349617e-06 9.200787665413184e-06 9.441077474114621e-06 9.440402546986287e-06 9.65323485826015e-06 9.643045168669583e-06 9.84174834337882e-06 9.835626243626824e-06 1.0010172673162351e-05 1.0000647929525973e-05 1.0153974794355072e-05 1.014808054123104e-05 1.0276532215427978e-05 1.0267001813918619e-05 1.0374166777472369e-05 1.0368291364169582e-05 1.0450519518811254e-05 1.0440983985956033e-05 1.0501929698779433e-05 1.049605622848653e-05 1.0532058553690122e-05 1.0522522785947958e-05 1.0537244295951169e-05 1.0531370003809004e-05 1.052114872450416e-05 1.0511613344954478e-05 1.0499864228971753e-05 1.0480110611484024e-05 1.0455165385115844e-05 1.0408254738808365e-05 1.036790023335958e-05 1.0399401455602985e-05 1.030558023580985e-05 1.0330527108119738e-05 1.029672806513115e-05 1.0312818320509686e-05 1.0212440109249112e-05 1.0221984571752768e-05 1.0194737289215833e-05 1.0195413885222774e-05 1.0298091176763461e-05 1.0165276511791073e-05 1.0252549059255457e-05 1.049467585161044e-05 1.0447758863858949e-05 1.0427161144504782e-05 1.0364831365292124e-05 1.0328824795794983e-05 1.025108028269214e-05 1.027168458390906e-05 1.0199664876791537e-05 1.0262007599778014e-05 1.0163239572485365e-05 1.0104328481039171e-05 1.017619275188815e-05 1.0142519279194602e-05 1.0147721515799087e-05 1.0117442142919902e-05 1.0164382800076586e-05 1.0088477757972175e-05 1.008263662216128e-05 1.0063530028202087e-05 1.0039677644486577e-05 1.0045847705930863e-05 1.0047183827007158e-05 9.998932285349563e-06 1.0012570765372196e-05 1.0069022001931987e-05 1.0217232002401259e-05 1.0094635876683421e-05 1.0003142341398485e-05 9.992938327999824e-06 1.0004420124379385e-05 1.0035952929539593e-05 1.0180493278598172e-05 1.003664477423019e-05 1.0122114774851335e-05 9.951949796731446e-06 1.0165775558935048e-05 1.0006509585702171e-05 1.02274532051779e-05 1.0089444753949177e-05 1.0324658134025125e-05 9.925289156469279e-06 9.941187484597568e-06 9.920604639765197e-06 1.0053466837048177e-05 9.924121572930928e-06 9.883816003831056e-06 9.869262583345016e-06 9.890024977563595e-06 9.861974397475042e-06 9.81641879676579e-06 9.945556147722061e-06 9.866160346896261e-06 9.860613711924611e-06 9.813629366365202e-06 9.98669306464599e-06 1.0294222883567122e-05 1.0369951232722483e-05 1.006569434893288e-05 9.880130471544766e-06 9.8073147950128e-06 9.803763705985107e-06 9.787139718665031e-06 9.740063121092712e-06 9.853784766725764e-06 9.756866342977948e-06 9.728918283463567e-06 9.753833988240793e-06 9.889093212178413e-06 1.0043872095177047e-05 1.0155475500242483e-05 9.978446182719732e-06 9.777388680156228e-06 1.0220454872201082e-05 9.860424822519889e-06 9.762097840257505e-06 9.89764055558768e-06 9.70271915020098e-06 9.718478957905157e-06 9.982530156255985e-06 9.827758009929399e-06 9.79170902067833e-06 1.0264094991661915e-05 1.0437542068089563e-05 1.0458672485007634e-05 1.0334633977397279e-05 1.0329452140233391e-05 9.673403801057747e-06 9.674131949336407e-06 9.667673861515405e-06 9.65427025606426e-06 9.660880900310713e-06 9.687363993250756e-06 9.632889242421624e-06 9.731187962068589e-06 9.654646183360083e-06 9.649947676266718e-06 9.712776603853756e-06 9.757527615509435e-06 1.0377137949582303e-05 1.0421218866538986e-05 1.0007783771582577e-05 9.625225579860955e-06 9.64824682558608e-06 9.602842755013411e-06 9.737414939880219e-06 9.567672359785057e-06 9.554907937528783e-06 9.54298134483688e-06 9.565832558418578e-06 9.583538937521067e-06 9.72685750663612e-06 9.504429891784875e-06 9.512178305759404e-06 9.572700936462066e-06 9.437916356062018e-06 9.513605413216341e-06 9.422981835122531e-06 9.463346261090715e-06 9.480516556870765e-06 9.494792662669251e-06 9.526427671204538e-06 9.706580238669514e-06 9.448010802157596e-06 9.500583206429216e-06 9.404493194493016e-06 9.489404351984848e-06 9.581488831531936e-06 9.441139277552443e-06 9.65835756178752e-06 9.352385308087958e-06 9.595814233686147e-06 9.384102635585991e-06 9.638871028904555e-06 9.988828261228412e-06 9.81564168479664e-06 1.012903815720049e-05 1.0255244571669727e-05 1.011138145351929e-05 1.034922340606534e-05 1.0226653188329922e-05 9.959711838759086e-06 1.0331600431434967e-05 1.0400628923945733e-05 1.0429237078696198e-05 1.0512299128672624e-05 9.750284462015456e-06 9.524908524273204e-06 1.0045968777614902e-05 9.751609976260574e-06 9.59983424249372e-06 9.48192079587292e-06 1.0510775130675682e-05 9.502899741939475e-06 9.427558081402432e-06 9.595359823117918e-06 1.0474236616554004e-05 1.039650920861806e-05 1.0061922938106378e-05 1.0100920569656931e-05 9.813952533757193e-06 9.712178063983552e-06 9.44950813837431e-06 9.584526456057556e-06 9.655605430379587e-06 9.739840859192809e-06 9.49727079186201e-06 1.0106503547121415e-05 9.639733537128803e-06 1.0370025272945318e-05 9.931476085033825e-06 9.601145642209816e-06 9.637460486061637e-06 9.569289742180794e-06 1.0200714451047491e-05 9.912977749967585e-06 1.0172087705689545e-05 9.942280200278216e-06 1.024981827168244e-05 9.876817766756304e-06 1.029345901780723e-05 9.539549517174756e-06 9.387855210895487e-06 9.483677431640843e-06 1.0001639393515642e-05 9.807169220860982e-06 9.715460039562152e-06 9.590950601600367e-06 9.450994377277967e-06 9.597263405386178e-06 9.934088279480961e-06 9.721885163599275e-06 1.0375750257696552e-05 9.921208563199128e-06 1.039185479583561e-05 1.0476984195306986e-05 1.047125867893474e-05 1.0293527477246251e-05 1.0120234528805403e-05 9.851239927190645e-06 9.81878790997615e-06 9.680821456741236e-06 1.03444049690353e-05 1.0261476539475792e-05 1.0417791610847648e-05 1.0206867499994833e-05 1.0309000953384921e-05 9.931738593244747e-06 1.041099344870351e-05 1.014861674760365e-05 1.0287968605060027e-05 9.379276999455094e-06 1.0400084803399184e-05 9.898678784508116e-06 1.0456534708534446e-05 9.833560104600748e-06 9.86861754594009e-06 9.68627021458458e-06 1.0482167732147398e-05 1.0459364448182671e-05 1.0073203213181584e-05 1.0203146040664405e-05 9.80061306310944e-06 9.936962292466347e-06 9.465278480906344e-06 9.344479825006775e-06 9.344197756985804e-06 9.350969918289673e-06 9.419101465842522e-06 9.421557311728252e-06 9.445048258964996e-06 9.42289047928066e-06 9.435118268082834e-06 9.33176780117897e-06 9.227541092943416e-06 9.227412707179141e-06 9.270868448284764e-06 9.196265178597323e-06 9.203905583707704e-06 9.192567310228992e-06 9.157681470671149e-06 9.176925144047714e-06 9.192828500837459e-06 9.242337373301561e-06 9.191548661475843e-06 9.188048326250222e-06 9.216035290306375e-06 9.197683198568557e-06 9.176941247365212e-06 9.204926255523614e-06 9.157967350838213e-06 9.204961331765217e-06 9.236671991937138e-06 9.20124572954388e-06 9.433895954892955e-06 9.162047532887145e-06 9.195272850562056e-06 9.440797635854541e-06 9.16818681187875e-06 9.442361569801287e-06 9.415983494633905e-06 9.422139740686266e-06 9.417197016052439e-06 9.134726033801799e-06 9.145874695705604e-06 9.384347951850074e-06 9.397904249646752e-06 9.144271313547867e-06 9.403310447711283e-06 9.375410886978935e-06 9.132423435004653e-06 9.389059681255276e-06 9.38966443536916e-06 9.379551499003789e-06 9.378220886341055e-06 9.118609813839052e-06 9.410517073208516e-06 9.379494574317167e-06 9.372914870280108e-06 9.38530328986725e-06 9.117833249172746e-06 9.39459055184425e-06 9.116166072321258e-06 9.11014428204428e-06 9.384268126089689e-06 9.34847269979289e-06 7.501161145512241e-06 7.668595805671149e-06 7.750252202186622e-06 7.692245316667532e-06 7.746172523721497e-06 7.65581186974715e-06 7.695820827899986e-06 7.609297449836437e-06 7.668437383952495e-06 7.751094289847517e-06 7.677034866945148e-06 7.72503772302877e-06 7.747670787645058e-06 7.668163916303248e-06 7.47031223552163e-06 7.511209142283611e-06 6.981067104156993e-07 7.67984010171364e-07 8.938006294448561e-07 7.04434330332569e-07 7.940959104790741e-07 7.736727866877943e-07 8.008436509098943e-07 7.935048367430543e-07 7.186858654043926e-07 6.986945523251945e-07 7.767752607904067e-07 8.26096444596865e-07 7.585556562823127e-07 7.248320573674242e-07 7.67536307479905e-07 8.193560293083956e-07 8.017349880345552e-07 8.536451561860069e-07 7.737047239098837e-06 7.661528244080725e-06 7.225318520407784e-07 8.016932090913288e-07 7.692901778770894e-07 7.855293424199663e-07 8.020925359400717e-07 8.845357043597262e-07 8.182826838168516e-07 7.75207338773575e-07 7.705584522645023e-07 7.636720700211863e-07 8.963277745647789e-07 8.016123323763579e-07 6.765205435813663e-07 8.693902078961369e-07 7.655732560821962e-06 7.675585897452121e-06 7.730203268733309e-06 7.779676737100556e-06 7.714308163282855e-06 7.648195571185457e-06 7.751711313311425e-06 7.702467466978177e-06 7.514285958365328e-06 7.657081704843705e-06 7.657673550512722e-06 7.676173852131488e-06 8.621113989364692e-07 7.404469712394895e-07 7.678407529556166e-07 7.531803444088907e-07 8.019259945898826e-07 8.027315402546291e-07 7.524574951500628e-07 7.236627629933522e-07 8.492319346356316e-07 6.197129936407838e-07 8.01188658694008e-07 8.289272143132722e-07 8.619883003875906e-07 8.347773538765001e-07 7.684857658682035e-06 6.479287365959732e-06 6.377047395590897e-06 5.318075932596906e-06 5.349011846935904e-06 5.166564555083705e-06 4.221922363581613e-06 4.066005328036951e-06 5.125474277077027e-06 3.859454060339668e-06 4.6596987381362214e-06 3.534038734576565e-06 4.277371952742184e-06 3.1598057378574283e-06 3.8310739800584034e-06 3.0187644645628823e-06 2.735826287701626e-06 3.3329334266334115e-06 4.476297888373696e-06 3.8955091275894485e-06 5.126273029079625e-06 4.460955819317664e-06 3.285480845271836e-06 3.7244706465900606e-06 4.871934866658024e-06 4.095954507310448e-06 3.002541392218672e-06 3.3106613859236877e-06 4.406057508285428e-06 3.5518029886255383e-06 4.5872387052947175e-06 3.7117313191278365e-06 4.722866465333047e-06 3.7988845302048017e-06 4.829912621939143e-06 3.816334546246158e-06 4.804989882147977e-06 3.7485955390335565e-06 4.682452630857557e-06 3.600395229785034e-06 4.4718703160336245e-06 3.377451417945445e-06 4.180884302478779e-06 3.085858958473515e-06 3.818500155816083e-06 2.822150365437533e-06 2.7326159225084974e-06 3.3947962320538217e-06 4.536299143085961e-06 4.031929472984085e-06 5.215878851633288e-06 4.6331810840819e-06 3.4790436296591266e-06 3.996622099641061e-06 2.8896652080188563e-06 3.3321347061212982e-06 4.369327063976145e-06 3.6898937554316047e-06 2.6420414337670223e-06 2.9599570056762413e-06 4.154053977001839e-06 3.239502670271419e-06 4.294005397831149e-06 3.4128675091480954e-06 4.424939585469159e-06 3.5182631379399692e-06 4.530001599921063e-06 3.5565437888981414e-06 4.506141366504587e-06 3.51159748367306e-06 4.4422451005058186e-06 3.3966477240598074e-06 4.291284383861544e-06 3.208772670804065e-06 4.046688343309314e-06 2.9505551303414727e-06 3.7009200367497697e-06 4.870163823182232e-06 4.441201786081465e-06 3.306224896447348e-06 3.966113363347485e-06 2.8590607197457064e-06 3.4429948441093946e-06 4.595045337147401e-06 3.989598588707598e-06 5.180720587488231e-06 4.488392717772421e-06 3.3505978049828634e-06 3.769354616332464e-06 4.926005228308068e-06 4.127017183779943e-06 5.2384757285447455e-06 4.37153406953539e-06 3.3172117663054243e-06 3.5347819899751084e-06 4.5736530976556166e-06 3.679039334319814e-06 4.726633076152472e-06 3.751183535911195e-06 4.767881216500569e-06 3.7410609919816177e-06 4.665472434267716e-06 3.642460651018187e-06 4.5094495000640306e-06 3.470427535014901e-06 4.317528089243265e-06 3.2346360349424304e-06 4.015749838834245e-06 2.9288197843065256e-06 3.641041041132073e-06 4.715768196365742e-06 4.289180932934281e-06 3.198050043959497e-06 3.8100237630500646e-06 2.5228829353970226e-06 2.456277696315081e-06 2.4127127946258835e-06 2.75773396451462e-06 4.97737735196576e-06 4.3914517667816005e-06 3.256366088765068e-06 3.7551280697870367e-06 2.6636383041746093e-06 3.0877266760953944e-06 4.199375490896589e-06 3.456290574552429e-06 4.580048702661836e-06 3.7616853361655755e-06 4.914533569425406e-06 4.000965520014518e-06 5.14422552096606e-06 4.159740644260922e-06 2.9468875512310705e-06 2.7798664347308826e-06 5.247893059328712e-06 4.2274900741251194e-06 3.2253308679743315e-06 3.2524517656868103e-06 4.2166199185833355e-06 3.2051473337019617e-06 4.120899357714117e-06 3.082833091564379e-06 3.943535808013476e-06 2.8911045672167853e-06 3.6903710462828193e-06 4.815509778357581e-06 4.473977682650036e-06 3.365800428741396e-06 4.07405971235511e-06 2.9820561855093857e-06 3.6305201543021115e-06 4.7130270127298465e-06 4.235457381265267e-06 3.122229601241364e-06 3.6628810548456224e-06 4.746233567075572e-06 4.142483329740289e-06 3.0416656325415457e-06 3.459202141891808e-06 4.535062798026742e-06 3.776035299999414e-06 2.740579404100378e-06 3.0319330166395654e-06 4.2303598604374365e-06 3.2844280204933864e-06 4.330221523473247e-06 3.4249544087518057e-06 4.463608157634898e-06 3.502343312270461e-06 4.5097237995845415e-06 3.5044965755329934e-06 4.468991144147851e-06 3.429699071803253e-06 4.341368129328974e-06 3.279307960746837e-06 4.130561838808323e-06 3.0576125896230346e-06 3.8435537094472415e-06 2.542081305102522e-06 4.9886397172402735e-06 4.589008184447202e-06 3.482839175779545e-06 4.150766658059187e-06 3.0667483247762622e-06 3.691315761137124e-06 5.045801005198811e-06 4.309128733824014e-06 3.16404288574135e-06 3.6774694319406438e-06 4.752848880201226e-06 4.105404529408612e-06 3.0249997535598614e-06 3.411333882268518e-06 4.5143022716479866e-06 3.739368015816391e-06 4.804030714570346e-06 3.990287548362499e-06 2.942950070385468e-06 3.1391427769550088e-06 5.235026993056092e-06 5.124856437927032e-06 2.317113762980421e-06 5.456215402959168e-06 2.8412843267256607e-06 5.468231782391407e-06 2.3576766584099493e-06 2.546420639433258e-06 5.5375401627633085e-06 2.6967825456412627e-06 2.4149441436418275e-06 5.340190170303508e-06 5.598461666860721e-06 2.5257824273002778e-06 5.622821822118791e-06 2.5774719595985392e-06 2.158663114518105e-06 2.617298879798537e-06 5.454950592711292e-06 5.77497842095407e-06 5.752369400970112e-06 2.334333535611579e-06 2.299656549653159e-06 2.4202751979601894e-06 5.772678125396765e-06 5.797380121879368e-06 2.326826091259021e-06 3.2708729226645246e-06 2.4077894343427685e-06 5.429405843755602e-06 2.5196580577009316e-06 2.374074644212485e-06 3.3163623627460444e-06 2.4025837493508507e-06 2.38297636585331e-06 2.2856500633091664e-06 5.485680279796137e-06 2.4359642500495076e-06 5.598825490669409e-06 6.008632734447131e-06 2.288572081279214e-06 2.293720017350926e-06 2.090136574635143e-06 2.3677310182310963e-06 2.3385523392501195e-06 5.619104584532654e-06 1.8696430641666357e-06 5.757827491955321e-06 6.472152053558138e-06 2.2925275631916626e-06 2.041654156005091e-06 2.297708302235057e-06 1.992850477208036e-06 1.4804637890691713e-06 2.232932530894277e-06 1.6294152557132341e-06 5.726413813600075e-06 5.708774167054886e-06 6.33669825153408e-06 5.808958958586233e-06 5.688278384167357e-06 1.9092810441969355e-06 1.524067200167164e-06 5.666840568559611e-06 6.216441180490998e-06 2.0472375872272904e-06 1.4388708913320927e-06 1.944169852030454e-06 1.9203272720098217e-06 1.2603355643709258e-06 6.367803815365869e-06 1.722719344939777e-06 2.0041139995184283e-06 1.4239353328836916e-06 6.0184610860729725e-06 1.5594706445694879e-06 7.728219154616002e-06 7.764273842598781e-06 7.700400322313108e-06 6.563775743616243e-06 6.58630629196563e-06 6.3736682555352225e-06 7.65737845880486e-06 6.609594997669883e-06 7.742386438217792e-06 6.336020071547013e-06 6.348024196011072e-06 7.824110319480332e-06 7.738404243440638e-06 7.714415980828997e-06 7.836759732306975e-06 7.648626518454889e-06 6.439988887644086e-06 6.365378887627304e-06 7.5786293118926405e-06 6.4108121789717226e-06 7.745184742509774e-06 6.5404598288329475e-06 7.733414678159902e-06 7.698994406465977e-06 7.63603925133422e-06 7.55099082684996e-06 7.83496050953715e-06 7.659104103501617e-06 6.553817010191256e-06 6.435608532011757e-06 7.501131147688843e-06 7.684083405328093e-06 7.798108206966349e-06 7.533590164577246e-06 6.524758969990731e-06 6.409213599288431e-06 7.752241857016568e-06 6.468536796609341e-06 7.834886497512344e-06 6.584345678617137e-06 7.70377775816697e-06 7.436139743656629e-06 7.658126164477676e-06 6.533106926589068e-06 6.259961236601786e-06 6.429924004713822e-06 6.495041684988299e-06 7.63956635166177e-06 9.320643208256024e-07 6.433019478964126e-06 1.701586432992269e-06 6.169415838442666e-06 6.345720804102929e-06 6.3810144431938794e-06 7.688143490113654e-06 6.44474157560908e-06 6.358018580491979e-06 5.320449229808938e-06 1.6357032096112704e-06 7.65672678690504e-06 6.42338006421911e-06 7.656447735781369e-06 6.422720033181453e-06 5.351452505797548e-06 5.262960346485065e-06 6.218233415762916e-06 7.744439741865506e-06 6.491005062940974e-06 1.6641058345117062e-06 4.96570664301024e-06 6.1260906312638365e-06 5.035735583042232e-06 5.074968790828408e-06 5.653050883154352e-06 5.537539994055256e-06 5.140237287445497e-06 5.825409979261571e-06 5.586490326190345e-06 5.258457974405504e-06 5.432816744444593e-06 5.2903152465786756e-06 5.315739567140587e-06 5.686085280395918e-06 5.375180544763783e-06 4.92177476364053e-06 6.101903461770725e-06 5.6763933133676066e-06 5.29468464880725e-06 5.300196695021118e-06 4.176251698487792e-06 2.6253414334664855e-06 1.9424645331127338e-06 1.5239463725462967e-06 9.825367503824542e-07 2.5771339731037363e-06 2.2040645956253413e-06 1.7586914120182889e-06 2.5846800833547885e-06 2.1324814182850305e-06 2.0806524970832237e-06 2.6372761603254886e-06 2.2194134919176855e-06 1.8551132787363197e-06 2.102863335025437e-06 1.6534005712784004e-06 2.9311335054969395e-06 2.7976161019399935e-06 2.8832120227152613e-06 2.593273471463088e-06 2.1129108341508217e-06 2.6721980644066963e-06 3.0435279103872033e-06 2.7080922921162565e-06 1.8308586328276983e-06 2.26492395104954e-06 1.5372576595471595e-06 1.6116296218942634e-06 2.761964709003201e-06 2.633225363133985e-06 2.2748143161755985e-06 2.5754645865890384e-06 2.681453067471227e-06 2.110198970445607e-06 2.453422000356347e-06 2.7083401547585842e-06 1.8548347916344322e-06 2.002045550983303e-06 1.0751063444466816e-06 1.6763983733254096e-06 3.1275084297905067e-06 2.543563412708084e-06 1.6195130250352207e-06 2.552093272098048e-06 2.80451808170006e-06 1.9037345121503847e-06 2.3597770707123474e-06 2.5944339183841473e-06 2.5758881426343423e-06 1.6755884182590972e-06 1.6358427940958213e-06 2.8745261567922394e-06 2.47177244123582e-06 2.7336982099141132e-06 2.614465193748709e-06 1.7243413357885793e-06 2.7438056895841276e-06 1.9066254843331046e-06 2.4185524346566378e-06 2.6388322358454564e-06 1.6785084301411023e-06 1.516260783613371e-06 2.22731453857533e-06 1.920572928354099e-06 2.3127190352714694e-06 2.2128246016127318e-06 2.386041471556215e-06 1.579767097020225e-06 1.6171237013400755e-06 1.0948835215784677e-06 1.9872527900210035e-06 1.2241472038561539e-06 2.7865536827477412e-06 2.0189392833952774e-06 2.231627231204875e-06 2.2769251462435297e-06 1.5510036079426946e-06 1.0974159671015418e-06 1.3675601708931433e-06 3.188942782671924e-06 1.843633874977624e-06 1.8192832684842944e-06 1.804140128805694e-06 1.7258835431358005e-06 9.062732066800102e-07 1.3579044779369887e-06 1.7102681902022424e-06 2.1818360694368703e-06 1.862483310550563e-06 1.8201755268872068e-06 1.9627561782353927e-06 1.6787539998776388e-06 1.9056835784456284e-06 1.8445500681831484e-06 1.6288230642330675e-06 1.3722468135275834e-06 2.0162908716635814e-06 1.7741517931508242e-06 9.184429381994601e-07 3.2929950530393233e-06 2.3740289372771385e-06 4.296299490347455e-06 4.280658218951701e-06 6.3234787838374466e-06 1.595119905746292e-06 8.366029784093268e-07 1.6413847350491701e-06 1.3304746199304646e-06 8.075353993121685e-07 1.554278322508886e-06 8.12300442800124e-07 9.980406507827598e-07 1.3291028414573702e-06 7.945521583573241e-07 5.459993157861835e-06 9.397430831890954e-07 1.711868123309902e-06 1.5622705774640215e-06 5.285293354005227e-06 7.881433386785634e-07 7.676716579679177e-06 9.293202719134632e-07 1.7079361384874473e-06 1.4068832949760858e-06 8.797207786032388e-07 1.5349239398946091e-06 5.635561784342133e-06 1.6242407285901744e-06 6.389302181816551e-06 1.634667681925731e-06 9.568785761309306e-07 7.282136189716371e-07 8.14153624775585e-07 7.701767919811219e-07 7.926028312729719e-07 9.16676701379518e-07 7.950868905436221e-07 7.64316122475618e-07 8.27710031320415e-07 9.184951009142179e-07 7.620104593020454e-07 7.382311105656102e-07 7.66611519683203e-07 7.958634633437966e-07 7.511287688344024e-07 7.637020589132953e-07 7.514478293908796e-07 7.746984205474452e-07 7.524568640540575e-07 7.188188461691099e-07 6.50731829285331e-06 1.5086161230547153e-06 1.5563358796778289e-06 8.123076696911185e-07 6.314813999292526e-06 6.474783390271966e-06 5.463926085302463e-06 7.981297915957971e-07 6.53114062883858e-06 6.5346697422763835e-06 5.463016138485621e-06 6.6147922425272155e-06 6.431577739730399e-07 1.6197992491587247e-06 5.391399044639021e-06 6.639792986706798e-06 5.18113249327551e-06 6.659768343842427e-07 6.628684720444508e-06 1.5819015510475254e-06 6.590150902822824e-06 1.5027799066229025e-06 1.6021541687055916e-06 1.4605974405665997e-06 7.40540268595467e-07 7.447540936117182e-07 7.654891752675561e-07 6.61064257740127e-06 6.157321136128272e-07 5.196916547225599e-06 5.224629092272856e-06 1.5384032678999419e-06 7.614147626806406e-07 6.317447797106658e-06 7.47647206324772e-07 6.423704837183234e-07 7.836514335739432e-07 1.5661049488174663e-06 6.419627679478642e-06 1.5095424177300005e-06 1.527718096764967e-06 6.571355538548182e-06 1.5445005192269263e-06 7.591709508654534e-07 6.734973701355836e-06 6.60013961394114e-06 6.988053967537121e-07 7.137276486445281e-07 7.315944313375265e-07 5.64084999345318e-06 1.492114848143868e-06 5.444028263196131e-06 6.745293368937591e-07 6.554360315021803e-07 5.4464044250880935e-06 1.4717244406104608e-06 5.669393318761181e-06 1.4921544179502774e-06 6.937509373410858e-07 5.265986429304422e-06 1.493351351447192e-06 6.999921547342309e-07 5.160906599960971e-06 1.3095890810812527e-06 5.434684968299882e-06 1.4386805430112341e-06 6.272758490083155e-07 6.767342273931101e-06 6.737357356291493e-06 6.980464028178044e-07 1.517268706209819e-06 6.387384859491807e-06 6.676974762489488e-06 5.365689020663511e-06 1.4600712465518315e-06 1.4638846776266048e-06 1.5442932142642518e-06 1.3970793921861676e-06 1.4687753268680801e-06 1.5433907247926949e-06 6.405495054654557e-07 6.8625432817159255e-06 4.9726577824030515e-06 5.590561990832858e-07 6.83528717164078e-06 4.574891925272563e-06 1.501908227199924e-06 6.70862753118955e-06 5.441266009638186e-06 1.4059972246713209e-06 5.144609774001204e-06 1.5229028299317024e-06 5.730120870583531e-07 5.430301922187319e-07 6.073660312351964e-06 6.438950103958705e-06 6.837197675774244e-06 5.732006772760739e-06 6.5950176769338866e-06 6.494862614692783e-07 6.477848940269073e-07 1.4519051689042241e-06 6.737435669880716e-06 6.690585592760109e-06 5.677416743838353e-07 5.667409875165572e-06 6.681925376295289e-06 5.364311137639281e-07 1.3755341275688553e-06 5.7120785402786895e-06 6.68047295174548e-06 1.3287278223909572e-06 5.986094533659748e-07 6.712008903303609e-06 6.539043960114921e-06 6.6946230270938725e-06 5.683335934605569e-07 1.3336604884401518e-06 1.3243892602785305e-06 6.786548213054322e-06 6.678363673021589e-06 1.3651976772861866e-06 1.5077964479150238e-06 5.079372767411415e-06 1.340197339687138e-06 5.695932862506611e-06 5.679128597257685e-06 1.7229599108302478e-06 1.422057433871423e-06 6.235547477832613e-07 6.828624852682503e-06 1.3050659205353113e-06 1.2601682131372763e-06 7.025916124601534e-06 1.2898901840687694e-06</DataArray>
      </PointData>
      <CellData>